! Touchstone file exported from HFSS 2022.1.0
!        File:           C:/Users/Mahdi/Documents/Ansoft/mlab_project1.aedt
!        Generated:      12:35:54 PM  May 11, 2022
!        Design:         HFSSDesign1
!        Project:        mlab_project1
!        Setup:          Setup1
!        Solution:       Sweep
!
! Variables:
!        a = 22.86mm
!        b = 10.16mm
!        f = 10GHz
!        l = 6.18mm
!        l_wg = 30.0792458mm
!        la = 0.0299792458meter
!        t = 100um
!        w_iris = 10.5mm
!
# GHz S MA R 50.000000
! Terminal data exported
! Port[1] = 1
! Port[2] = 2
8                              0.287772238728304 103.969371819612 0.957462233282137 13.9279825509916 0.957462233282137 13.9279825509916 0.287765953672908 103.908423983151 
! Gamma         0                96.1401703464393 0                96.1405293072504 
! Port Impedance         50               0                50               0                
8.02                           0.28711318512134 103.923280468608 0.957660516457224 13.882538914423  0.957660516457224 13.8825389144229 0.287106907788773 103.863403993105 
! Gamma         0                96.869782075291  0                96.870138332462  
! Port Impedance         50               0                50               0                
8.04                           0.286456685748601 103.877373030146 0.95785753855731 13.8372880653873 0.95785753855731 13.8372880653873 0.286450416101003 103.818585798266 
! Gamma         0                97.5957407916902 0                97.5960943988777 
! Port Impedance         50               0                50               0                
8.06                           0.28580272403902 103.83164797101  0.958053310574294 13.7922286174449 0.958053310574294 13.7922286174449 0.285796462038101 103.773968156514 
! Gamma         0                98.3181274147115 0                98.3184784238005 
! Port Impedance         50               0                50               0                
8.08                           0.285151283608132 103.78610376808  0.958247843364976 13.7473591933973 0.958247843364976 13.7473591933972 0.285145029215157 103.729549834115 
! Gamma         0                99.0370201100802 0                99.037368571264  
! Port Impedance         50               0                50               0                
8.1                            0.284502348259308 103.740738908034 0.958441147652077 13.7026784250152 0.958441147652077 13.7026784250152 0.28449610143508 103.685329605493 
! Gamma         0                99.7524944175619 0                99.7528403794179 
! Port Impedance         50               0                50               0                
8.12                           0.283855901979765 103.695551887438 0.958633234026717 13.6581849531139 0.958633234026717 13.658184953114  0.283849662684636 103.641306253274 
! Gamma         0                100.464623370913 0                100.464966880477 
! Port Impedance         50               0                50               0                
8.14                           0.283211928938848 103.650541212782 0.95882411295028 13.6138774274983 0.958824112950279 13.6138774274983 0.283205697132695 103.597478568157 
! Gamma         0                101.17347761091  0                101.173818713742 
! Port Impedance         50               0                50               0                
8.16                           0.282570413486608 103.605705400307 0.959013794756072 13.5697545068639 0.959013794756072 13.5697545068639 0.282564189128834 103.553845348873 
! Gamma         0                101.879125491945 0                101.879464232197 
! Port Impedance         50               0                50               0                
8.18                           0.281931340151338 103.561042976099 0.959202289651356 13.5258148587833 0.959202289651357 13.5258148587834 0.281925123200867 103.51040540208  
! Gamma         0                102.581633182622 0                102.581969603094 
! Port Impedance         50               0                50               0                
8.2                            0.281294693638107 103.51655247602  0.959389607718986 13.4820571596241 0.959389607718987 13.482057159624  0.281288484053377 103.467157542253 
! Gamma         0                103.281064760763 0                103.281398902962 
! Port Impedance         50               0                50               0                
8.22                           0.280660458826537 103.472232445713 0.959575758919301 13.4384800945117 0.959575758919302 13.4384800945117 0.280654256565481 103.424100591613 
! Gamma         0                103.977482303199 0                103.977814207398 
! Port Impedance         50               0                50               0                
8.24                           0.280028620768564 103.42808144056  0.959760753091988 13.3950823573028 0.959760753091988 13.3950823573028 0.280022425788627 103.381233380118 
! Gamma         0                104.670945970692 0                104.671275675973 
! Port Impedance         50               0                50               0                
8.26                           0.279399164687277 103.384098025624 0.959944599957588 13.3518626504853 0.959944599957591 13.3518626504853 0.279392976945395 103.338554745314 
! Gamma         0                105.361514088302 0                105.361841632611 
! Port Impedance         50               0                50               0                
8.28                           0.27877207597416 103.340280775731 0.960127309119461 13.308819685173  0.960127309119462 13.308819685173  0.278765895426746 103.296063532247 
! Gamma         0                106.049243221494 0                106.049568641686 
! Port Impedance         50               0                50               0                
8.3                            0.278147340187623 103.296628275414 0.960308890065359 13.2659521810426 0.960308890065359 13.2659521810426 0.278141166790588 103.253758593391 
! Gamma         0                106.734188248265 0                106.734511580145 
! Port Impedance         50               0                50               0                
8.32                           0.277524943050864 103.253139118834 0.960489352169165 13.2232588662873 0.960489352169165 13.2232588662873 0.277518776759588 103.21163878864  
! Gamma         0                107.416402427529 0                107.416723705896 
! Port Impedance         50               0                50               0                
8.34                           0.276904870449812 103.209811909858 0.960668704692593 13.1807384775848 0.960668704692592 13.1807384775847 0.276898711219147 103.16970298516  
! Gamma         0                108.095937464004 0                108.096256722691 
! Port Impedance         50               0                50               0                
8.36                           0.276287108431315 103.166645262072 0.960846956786763 13.1383897600375 0.960846956786764 13.1383897600376 0.276280956215574 103.127950057253 
! Gamma         0                108.772843569814 0                108.773160841723 
! Port Impedance         50               0                50               0                
8.38                           0.275671643201212 103.123637798633 0.961024117493872 13.0962114671398 0.961024117493871 13.0962114671398 0.275665497954184 103.086378886452 
! Gamma         0                109.447169523003 0                109.447484840141 
! Port Impedance         50               0                50               0                
8.4                            0.275058461122492 103.080788152399 0.961200195748717 13.0542023607103 0.961200195748717 13.0542023607103 0.275052322797415 103.044988361242 
! Gamma         0                110.118962723153 0                110.119276116668 
! Port Impedance         50               0                50               0                
8.42                           0.274447548713079 103.038094965824 0.961375200380403 13.0123612108836 0.961375200380403 13.0123612108836 0.27444141726264 103.003777377166 
! Gamma         0                110.788269244272 0                110.788580744485 
! Port Impedance         50               0                50               0                
8.44                           0.273838892643854 102.995556891054 0.961549140113861 12.9706867960623 0.961549140113861 12.9706867960624 0.273832768020199 102.962744836608 
! Gamma         0                111.455133885129 0                111.455443521561 
! Port Impedance         50               0                50               0                
8.46                           0.273232479737171 102.95317258984  0.961722023571311 12.9291779028547 0.961722023571311 12.9291779028547 0.27322636189188 102.92188964878  
! Gamma         0                112.119600217156 0                112.119908018562 
! Port Impedance         50               0                50               0                
8.48                           0.272628296964369 102.910940733576 0.96189385927393 12.8878333260596 0.96189385927393 12.8878333260596 0.272622185848475 102.881210729642 
! Gamma         0                112.781710630094 0                112.782016624488 
! Port Impedance         50               0                50               0                
8.5                            0.272026331444366 102.868860003258 0.962064655643185 12.8466518686073 0.962064655643184 12.8466518686072 0.272020227008332 102.840707001823 
! Gamma         0                113.441506375479 0                113.44181059016  
! Port Impedance         50               0                50               0                
8.52                           0.271426570441071 102.826929089529 0.962234421002542 12.8056323415538 0.962234421002541 12.8056323415539 0.271420472634795 102.800377394574 
! Gamma         0                114.099027608117 0                114.099330069698 
! Port Impedance         50               0                50               0                
8.54                           0.270829001362289 102.785146692661 0.962403163578671 12.7647735639945 0.962403163578671 12.7647735639945 0.270822910135101 102.760220843606 
! Gamma         0                114.75431342564  0                114.754614160068 
! Port Impedance         50               0                50               0                
8.56                           0.270233611757139 102.74351152255  0.962570891503078 12.72407436307   0.962570891503078 12.72407436307   0.270227527057801 102.720236291102 
! Gamma         0                115.407401906267 0                115.407700938848 
! Port Impedance         50               0                50               0                
8.58                           0.269640389314411 102.702022298701 0.96273761281349 12.6835335739129 0.962737612813492 12.683533573913  0.269634311091107 102.680422685642 
! Gamma         0                116.058330144852 0                116.058627500274 
! Port Impedance         50               0                50               0                
8.6                            0.269049321860517 102.660677750271 0.962903335455265 12.6431500396213 0.962903335455267 12.6431500396214 0.269043250060846 102.64077898209  
! Gamma         0                116.707134287329 0                116.707429989682 
! Port Impedance         50               0                50               0                
8.62                           0.268460397357888 102.619476616044 0.963068067282726 12.6029226112053 0.963068067282725 12.6029226112053 0.268454331928881 102.601304141525 
! Gamma         0                117.353849563626 0                117.354143636423 
! Port Impedance         50               0                50               0                
8.64                           0.267873603902583 102.578417644459 0.963231816060654 12.562850147586  0.963231816060656 12.5628501475859 0.267867544790683 102.561997131201 
! Gamma         0                117.998510319139 0                117.998802785333 
! Port Impedance         50               0                50               0                
8.66                           0.267288929722883 102.537499593542 0.963394589465531 12.5229315155283 0.963394589465532 12.5229315155283 0.267282876873949 102.52285692449  
! Gamma         0                118.641150044839 0                118.641440926845 
! Port Impedance         50               0                50               0                
8.68                           0.266706363177214 102.496721231046 0.963556395086907 12.4831655896249 0.963556395086908 12.483165589625  0.266700316536524 102.483882500701 
! Gamma         0                119.281801406084 0                119.282090725793 
! Port Impedance         50               0                50               0                
8.7                            0.266125892752224 102.456081334282 0.96371724042875 12.4435512522629 0.963717240428749 12.4435512522629 0.266119852264466 102.44507284519  
! Gamma         0                119.9204962702   0                119.920784049001 
! Port Impedance         50               0                50               0                
8.72                           0.265547507060985 102.415578690294 0.963877132910707 12.4040873935908 0.963877132910707 12.4040873935909 0.265541472670255 102.406426949113 
! Gamma         0                120.557265732905 0                120.557551991695 
! Port Impedance         50               0                50               0                
8.74                           0.264971194840917 102.375212095756 0.964036079869481 12.3647729115012 0.964036079869482 12.3647729115013 0.264965166490725 102.367943809502 
! Gamma         0                121.192140143615 0                121.19242490282  
! Port Impedance         50               0                50               0                
8.76                           0.264396944952249 102.334980357047 0.964194088559983 12.3256067115789 0.964194088559984 12.3256067115789 0.264390922585516 102.32962242908  
! Gamma         0                121.825149129715 0                121.825432409301 
! Port Impedance         50               0                50               0                
8.78                           0.263824746376182 102.294882290152 0.964351166156576 12.2865877070699 0.964351166156576 12.2865877070699 0.263818729935235 102.291461816294 
! Gamma         0                122.456321619822 0                122.456603439313 
! Port Impedance         50               0                50               0                
8.8                            0.263254588212452 102.254916720795 0.964507319754492 12.2477148188932 0.964507319754492 12.2477148188932 0.263248577639024 102.253460985218 
! Gamma         0                123.085685866106 0                123.085966244595 
! Port Impedance         50               0                50               0                
8.82                           0.262686459678236 102.2150824844   0.964662556370844 12.2089869755602 0.964662556370844 12.2089869755602 0.26268045491347 102.215618955424 
! Gamma         0                123.713269465706 0                123.71354842187  
! Port Impedance         50               0                50               0                
8.84                           0.262120350106086 102.175378426072 0.964816882945876 12.1704031131689 0.964816882945876 12.1704031131689 0.262114351090528 102.177934751987 
! Gamma         0                124.339099381294 0                124.339376933404 
! Port Impedance         50               0                50               0                
8.86                           0.261556248941932 102.135803400615 0.96497030634421 12.1319621753783 0.964970306344209 12.1319621753783 0.261550255615548 102.140407405421 
! Gamma         0                124.96320196082  0                124.963478126757 
! Port Impedance         50               0                50               0                
8.88                           0.260994145743013 102.096356272589 0.965122833356087 12.0936631134068 0.965122833356088 12.0936631134069 0.260988158045163 102.103035951618 
! Gamma         0                125.585602956478 0                125.585877753743 
! Port Impedance         50               0                50               0                
8.9                            0.260434030177076 102.057035916276 0.965274470698232 12.0555048859375 0.965274470698233 12.0555048859375 0.260428048046535 102.065819431687 
! Gamma         0                126.206327542941 0                126.206600988665 
! Port Impedance         50               0                50               0                
8.92                           0.259875892019503 102.017841215667 0.965425225015308 12.0174864591576 0.965425225015307 12.0174864591576 0.259869915394456 102.028756892054 
! Gamma         0                126.825400334878 0                126.825672445835 
! Port Impedance         50               0                50               0                
8.94                           0.259319721151925 101.978771064562 0.965575102880897 11.979606806714  0.965575102880897 11.979606806714  0.259313749969965 101.991847384268 
! Gamma         0                127.442845403815 0                127.44311619643  
! Port Impedance         50               0                50               0                
8.96                           0.258765507560813 101.939824366474 0.965724110798546 11.9418649096596 0.965724110798546 11.9418649096596 0.258759541758948 101.955089964994 
! Gamma         0                128.058686294338 0                128.058955784699 
! Port Impedance         50               0                50               0                
8.98                           0.258213241335206 101.901000034671 0.965872255202951 11.9042597564614 0.965872255202952 11.9042597564615 0.258207280849851 101.918483695977 
! Gamma         0                128.672946039697 0                128.673214243566 
! Port Impedance         50               0                50               0                
9                              0.257662912664763 101.862296992267 0.966019542461135 11.8667903429876 0.966019542461135 11.8667903429874 0.257656957431748 101.882027643946 
! Gamma         0                129.285647176824 0                129.285914109643 
! Port Impedance         50               0                50               0                
9.02                           0.257114511838909 101.823714172123 0.966165978873204 11.8294556724288 0.966165978873204 11.8294556724288 0.257108561793483 101.845720880528 
! Gamma         0                129.896811760789 0                129.897077437692 
! Port Impedance         50               0                50               0                
9.04                           0.256568029244153 101.785250516918 0.966311570673712 11.792254755333  0.96631157067371 11.792254755333  0.256562084320982 101.80956248227  
! Gamma         0                130.50646137873  0                130.50672581455  
! Port Impedance         50               0                50               0                
9.06                           0.256023455363144 101.746904979135 0.966456324032427 11.755186609529  0.966456324032427 11.7551866095289 0.256017515496316 101.773551530487 
! Gamma         0                131.114617163269 0                131.114880372544 
! Port Impedance         50               0                50               0                
9.08                           0.255480780772404 101.708676521063 0.96660024505555 11.7182502601413 0.96660024505555 11.7182502601413 0.255474845895424 101.737687111301 
! Gamma         0                131.721299805442 0                131.721561802429 
! Port Impedance         50               0                50               0                
9.1                            0.254939996140502 101.670564114878 0.966743339786686 11.6814447395736 0.966743339786686 11.6814447395736 0.25493406618631 101.701968315511 
! Gamma         0                132.326529567174 0                132.326790365852 
! Port Impedance         50               0                50               0                
9.12                           0.254401092226845 101.632566742559 0.966885614207751 11.6447690874558 0.966885614207751 11.6447690874558 0.254395167127802 101.666394238586 
! Gamma         0                132.930326293294 0                132.930585907373 
! Port Impedance         50               0                50               0                
9.14                           0.253864059879876 101.594683395956 0.96702707423995 11.6082223506283 0.96702707423995 11.6082223506283 0.253858139567778 101.630963980558 
! Gamma         0                133.532709423134 0                133.532967866064 
! Port Impedance         50               0                50               0                
9.16                           0.253328890035253 101.556913076781 0.967167725744793 11.5718035831261 0.967167725744793 11.5718035831261 0.253322974441328 101.595676646002 
! Gamma         0                134.133698001722 0                134.133955286695 
! Port Impedance         50               0                50               0                
9.18                           0.252795573713939 101.519254796635 0.967307574525091 11.5355118461774 0.967307574525091 11.5355118461775 0.252789662768861 101.560531344004 
! Gamma         0                134.733310690577 0                134.73356683054  
! Port Impedance         50               0                50               0                
9.2                            0.252264102021401 101.481707576983 0.96744662632567 11.4993462081247 0.96744662632567 11.4993462081246 0.252258195655273 101.52552718803  
! Gamma         0                135.331565778137 0                135.331820785793 
! Port Impedance         50               0                50               0                
9.22                           0.251734466144717 101.444270449214 0.967584886834624 11.4633057444812 0.967584886834624 11.4633057444812 0.251728564287097 101.490663295983 
! Gamma         0                135.928481189827 0                135.928735077646 
! Port Impedance         50               0                50               0                
9.24                           0.25120665735229 101.406942454592 0.96772236168385 11.4273895378292 0.96772236168385 11.4273895378293 0.251200759932189 101.455938790034 
! Gamma         0                136.524074497783 0                136.524327278007 
! Port Impedance         50               0                50               0                
9.26                           0.250680666990911 101.369722644351 0.967859056450307 11.3915966778751 0.967859056450306 11.3915966778751 0.250674773936787 101.421352796657 
! Gamma         0                137.118362930251 0                137.118614614894 
! Port Impedance         50               0                50               0                
9.28                           0.250156486485376 101.332610079595 0.967994976656565 11.3559262613569 0.967994976656564 11.3559262613569 0.250150597725153 101.386904446531 
! Gamma         0                137.711363380659 0                137.711613981522 
! Port Impedance         50               0                50               0                
9.3                            0.249634107335919 101.295603831387 0.968130127771914 11.3203773920806 0.968130127771914 11.3203773920806 0.24962822279698 101.352592874525 
! Gamma         0                138.303092416402 0                138.303341945073 
! Port Impedance         50               0                50               0                
9.32                           0.24911352111709 101.258702980752 0.968264515213117 11.2849491808751 0.968264515213118 11.2849491808751 0.249107640726296 101.31841721961  
! Gamma         0                138.893566287328 0                138.893814755187 
! Port Impedance         50               0                50               0                
9.34                           0.24859471947613 101.221906618657 0.968398144345251 11.2496407455681 0.96839814434525 11.2496407455681 0.248588843159809 101.284376624826 
! Gamma         0                139.482800933941 0                139.483048352168 
! Port Impedance         50               0                50               0                
9.36                           0.24807769413166 101.185213845997 0.968531020482469 11.2144512109565 0.968531020482469 11.2144512109565 0.248071821815627 101.250470237239 
! Gamma         0                140.070811995342 0                140.07105837492  
! Port Impedance         50               0                50               0                
9.38                           0.247562436871309 101.148623773692 0.968663148889045 11.1793797088332 0.968663148889044 11.1793797088332 0.247556568480857 101.216697207899 
! Gamma         0                140.657614816916 0                140.657860168637 
! Port Impedance         50               0                50               0                
9.4                            0.247048939551109 101.112135522607 0.968794534779912 11.1444253779082 0.968794534779911 11.1444253779082 0.24704307501103 101.183056691756 
! Gamma         0                141.243224457762 0                141.24346879223  
! Port Impedance         50               0                50               0                
9.42                           0.2465371940936  101.075748223605 0.968925183321576 11.1095873638189 0.968925183321577 11.1095873638189 0.24653133332818 101.149547847639 
! Gamma         0                141.827655697892 0                141.827899025529 
! Port Impedance         50               0                50               0                
9.44                           0.246027192486185 101.039461017521 0.9690550996329  11.0748648191076 0.969055099632901 11.0748648191077 0.246021335419221 101.11616983822  
! Gamma         0                142.410923045201 0                142.411165376251 
! Port Impedance         50               0                50               0                
9.46                           0.245518926779739 101.0032730552   0.969184288785879 11.0402569032042 0.969184288785879 11.0402569032042 0.245513073334536 101.082921829962 
! Gamma         0                142.993040742215 0                142.99328208675  
! Port Impedance         50               0                50               0                
9.48                           0.245012389087161 100.967183497503 0.96931275580635 11.005762782397  0.969312755806349 11.005762782397  0.245006539186539 101.049802993037 
! Gamma         0                143.57402277263  0                143.57426314055  
! Port Impedance         50               0                50               0                
9.5                            0.244507571581928 100.931191515298 0.969440505674757 10.9713816298146 0.969440505674756 10.9713816298146 0.244501725148236 101.016812501306 
! Gamma         0                144.153882867647 0                144.154122268685 
! Port Impedance         50               0                50               0                
9.52                           0.244004466496576 100.895296289423 0.969567543326879 10.9371126254116 0.969567543326879 10.9371126254116 0.243998623451695 100.98394953233  
! Gamma         0                144.732634512106 0                144.732872955838 
! Port Impedance         50               0                50               0                
9.54                           0.24350306612132 100.859497010801 0.969693873654559 10.902954955938  0.96969387365456 10.902954955938  0.243497226386675 100.951213267193 
! Gamma         0                145.310290950444 0                145.310528446285 
! Port Impedance         50               0                50               0                
9.56                           0.243003362802424 100.823792880322 0.969819501506422 10.8689078149386 0.969819501506422 10.8689078149386 0.242997526298984 100.918602890605 
! Gamma         0                145.88686519246  0                145.887101749671 
! Port Impedance         50               0                50               0                
9.58                           0.242505348941132 100.788183108938 0.969944431688543 10.8349704027078 0.969944431688544 10.8349704027078 0.242499515589426 100.886117590745 
! Gamma         0                146.462370018908 0                146.4626056466   
! Port Impedance         50               0                50               0                
9.6                            0.242009016991929 100.752666917609 0.970068668965156 10.8011419262918 0.970068668965157 10.8011419262918 0.242003186712042 100.853756559288 
! Gamma         0                147.036817986927 0                147.037052694062 
! Port Impedance         50               0                50               0                
9.62                           0.241514359461328 100.717243537326 0.970192218059338 10.7674215994554 0.97019221805934 10.7674215994554 0.241508532172925 100.821518991339 
! Gamma         0                147.610221435298 0                147.610455230698 
! Port Impedance         50               0                50               0                
9.64                           0.24102136890656 100.681912209118 0.970315083653613 10.7338086426581 0.970315083653613 10.7338086426581 0.241015544528885 100.789404085362 
! Gamma         0                148.182592489561 0                148.182825381902 
! Port Impedance         50               0                50               0                
9.66                           0.240530037934062 100.646672184044 0.970437270390696 10.7003022830512 0.970437270390696 10.7003022830512 0.240524216385951 100.7574110432   
! Gamma         0                148.753943066963 0                148.754175064786 