! Touchstone file exported from HFSS 2022.1.0
!        File:           C:/Users/Mahdi/Documents/Ansoft/mlab_project1.aedt
!        Generated:      8:53:24 PM  May 14, 2022
!        Design:         HFSSDesign7
!        Project:        mlab_project1
!        Setup:          Setup1
!        Solution:       Sweep
!
! Variables:
!        a_box = 51.9mm
!        a_fg = 41.9mm
!        a_wg = 22.86mm
!        b_box = 54mm
!        b_fg = 44mm
!        b_wg = 10.16mm
!        f = 10GHz
!        l_box = 160mm
!        l_wg = 150mm
!        la = 0.0299792458meter
!        r_scr = 2.1mm
!        spx_scr = 5mm
!        spy_scr = 5mm
!        t_diaph = 100um
!        t_fg = 1mm
!        w_diaph = 6.18mm
!        w_iris = 10.5mm
!
# GHz S MA R 50.000000
! Terminal data exported
! Port[1] = 1
8                              0.884559000151844 52.2961084744346 
! Gamma         0.0163937168561305 96.0688325626702 
! Port Impedance         50               0                
8.01                           0.884428765807991 52.2192296929346 
! Gamma         0.0163433707595677 96.4341632676328 
! Port Impedance         50               0                
8.02                           0.88423653408469 52.1363996352448 
! Gamma         0.0162935794276596 96.7985689736085 
! Port Impedance         50               0                
8.03                           0.883995361038552 52.0490972761713 
! Gamma         0.0162443334226797 97.1620600881704 
! Port Impedance         50               0                
8.04                           0.883716666200639 51.9585509196477 
! Gamma         0.0161956235298254 97.5246468378012 
! Port Impedance         50               0                
8.05                           0.883410268993947 51.8657661889922 
! Gamma         0.0161474407504876 97.8863392722055 
! Port Impedance         50               0                
8.06                           0.883084463960566 51.7715530449975 
! Gamma         0.0160997762957676 98.2471472684918 
! Port Impedance         50               0                
8.07                           0.882746123271784 51.6765514066626 
! Gamma         0.0160526215802298 98.607080535229  
! Port Impedance         50               0                
8.08                           0.882400817005278 51.5812550865023 
! Gamma         0.0160059682158807 98.9661486163817 
! Port Impedance         50               0                
8.09                           0.882052943519038 51.4860338609931 
! Gamma         0.0159598080063649 99.3243608951288 
! Port Impedance         50               0                
8.1                            0.881705863878916 51.3911535816905 
! Gamma         0.0159141329413678 99.6817265975689 
! Port Impedance         50               0                
8.11                           0.881362035691725 51.2967942981204 
! Gamma         0.0158689351912178 100.038254796318 
! Port Impedance         50               0                
8.12                           0.881023142859161 51.2030664134117 
! Gamma         0.0158242071016777 100.393954414003 
! Port Impedance         50               0                
8.13                           0.880690218725055 51.1100249310276 
! Gamma         0.01577994118892 100.748834226652 
! Port Impedance         50               0                
8.14                           0.880363760857126 51.0176818783468 
! Gamma         0.0157361301346759 101.102902866989 
! Port Impedance         50               0                
8.15                           0.880043836319272 50.9260170124355 
! Gamma         0.0156927667815528 101.456168827635 
! Port Impedance         50               0                
8.16                           0.879730176773022 50.8349869266556 
! Gamma         0.0156498441285128 101.808640464217 
! Port Impedance         50               0                
8.17                           0.879422263125019 50.7445326851657 
! Gamma         0.0156073553265052 102.160325998389 
! Port Impedance         50               0                
8.18                           0.879119399730264 50.6545861168379 
! Gamma         0.0155652936742476 102.511233520771 
! Port Impedance         50               0                
8.19                           0.878820778386633 50.5650749014053 
! Gamma         0.0155236526141491 102.8613709938   
! Port Impedance         50               0                
8.2                            0.87852553252898 50.475926579476  
! Gamma         0.0154824257283707 103.210746254512 
! Port Impedance         50               0                
8.21                           0.878232782161157 50.3870716147388 
! Gamma         0.0154416067350163 103.559367017238 
! Port Impedance         50               0                
8.22                           0.877941670160413 50.2984456318505 
! Gamma         0.0154011894844505 103.90724087623  
! Port Impedance         50               0                
8.23                           0.877651390657087 50.2099909472222 
! Gamma         0.0153611679557371 104.254375308218 
! Port Impedance         50               0                
8.24                           0.877361210237166 50.1216575027985 
! Gamma         0.0153215362531945 104.600777674891 
! Port Impedance         50               0                
8.25                           0.87707048274112 50.0334033049015 
! Gamma         0.0152822886030631 104.946455225323 
! Port Impedance         50               0                
8.26                           0.876778658439551 49.9451944617633 
! Gamma         0.0152434193502806 105.291415098319 
! Port Impedance         50               0                
8.27                           0.876485288360862 49.8570049045973 
! Gamma         0.0152049229553606 105.635664324711 
! Port Impedance         50               0                
8.28                           0.876190024525005 49.768815868108  
! Gamma         0.0151667939913713 105.979209829589 
! Port Impedance         50               0                
8.29                           0.875892616807745 49.6806151974995 
! Gamma         0.0151290271410103 106.322058434474 
! Port Impedance         50               0                
8.3                            0.875592907118538 49.5923965403349 
! Gamma         0.0150916171937715 106.664216859431 
! Port Impedance         50               0                
8.31                           0.875290821528086 49.504158473213  
! Gamma         0.015054559043201 107.005691725132 
! Port Impedance         50               0                
8.32                           0.87498636092619 49.4159036053184 
! Gamma         0.0150178476842394 107.346489554864 
! Port Impedance         50               0                
8.33                           0.874679590733778 49.327637693349  
! Gamma         0.0149814782106456 107.686616776482 
! Port Impedance         50               0                
8.34                           0.874370630130205 49.2393687955053 
! Gamma         0.0149454458125009 108.026079724322 
! Port Impedance         50               0                
8.35                           0.874059641195349 49.1511064858733 
! Gamma         0.0149097457737896 108.364884641051 
! Port Impedance         50               0                
8.36                           0.873746818304498 49.0628611448832 
! Gamma         0.0148743734700534 108.703037679483 
! Port Impedance         50               0                
8.37                           0.873432378052226 48.9746433364706 
! Gamma         0.0148393243661171 109.040544904343 
! Port Impedance         50               0                
8.38                           0.873116549923849 48.886463278222  
! Gamma         0.014804594013883 109.377412293989 
! Port Impedance         50               0                
8.39                           0.872799567879884 48.7983304069483 
! Gamma         0.0147701780501913 109.713645742091 
! Port Impedance         50               0                
8.4                            0.872481662966428 48.7102530390012 
! Gamma         0.0147360721947452 110.049251059264 
! Port Impedance         50               0                
8.41                           0.87216305702089 48.6222381220104 
! Gamma         0.0147022722480964 110.384233974674 
! Port Impedance         50               0                
8.42                           0.871843957500963 48.5342910726378 
! Gamma         0.0146687740896916 110.718600137588 
! Port Impedance         50               0                
8.43                           0.871524553430143 48.4464156933338 
! Gamma         0.0146355736759751 111.052355118897 
! Port Impedance         50               0                
8.44                           0.871205012423098 48.3586141599302 
! Gamma         0.0146026670385479 111.385504412601 
! Port Impedance         50               0                
8.45                           0.870885478729757 48.2708870710925 
! Gamma         0.0145700502823798 111.718053437252 
! Port Impedance         50               0                
8.46                           0.870566072217405 48.1832335502811 
! Gamma         0.014537719584073 112.050007537375 
! Port Impedance         50               0                
8.47                           0.870246888195389 48.0956513907005 
! Gamma         0.0145056711901767 112.38137198484  
! Port Impedance         50               0                
8.48                           0.869927997977118 48.0081372338324 
! Gamma         0.0144739014155489 112.712151980212 
! Port Impedance         50               0                
8.49                           0.869609450066884 47.9206867725626 
! Gamma         0.0144424066417654 113.042352654068 
! Port Impedance         50               0                
8.5                            0.869291271857568 47.8332949703263 
! Gamma         0.0144111833155741 113.371979068278 
! Port Impedance         50               0                
8.51                           0.868973471725132 47.7459562884455 
! Gamma         0.0143802279473924 113.701036217261 
! Port Impedance         50               0                
8.52                           0.868656041409556 47.6586649145054 
! Gamma         0.0143495371098477 114.029529029211 
! Port Impedance         50               0                
8.53                           0.868338958577472 47.5714149854924 
! Gamma         0.0143191074363587 114.357462367293 
! Port Impedance         50               0                
8.54                           0.868022189469466 47.484200800278  
! Gamma         0.0142889356197572 114.684841030813 
! Port Impedance         50               0                
8.55                           0.86770569154406 47.3970170168576 
! Gamma         0.0142590184109503 115.011669756361 
! Port Impedance         50               0                
8.56                           0.867389416040617 47.3098588307513 
! Gamma         0.0142293526176239 115.337953218927 
! Port Impedance         50               0                
8.57                           0.867073310395057 47.2227221316696 
! Gamma         0.0141999351029816 115.663696032994 
! Port Impedance         50               0                
8.58                           0.866757320452008 47.1356036365134 
! Gamma         0.0141707627844213 115.988902753605 
! Port Impedance         50               0                
8.59                           0.86644139243074 47.0485009974232 
! Gamma         0.0141418326318027 116.313577877406 
! Port Impedance         50               0                
8.6                            0.866125474612796 46.9614128843581 
! Gamma         0.0141131416670858 116.637725843663 
! Port Impedance         50               0                
8.61                           0.865809518728715 46.8743390423529 
! Gamma         0.0140846869644361 116.961351035263 
! Port Impedance         50               0                
8.62                           0.865493481033183 46.7872803240026 
! Gamma         0.0140564656466903 117.28445777969  
! Port Impedance         50               0                
8.63                           0.865177323068609 46.700238698325  
! Gamma         0.0140284748849452 117.607050349975 
! Port Impedance         50               0                
8.64                           0.864861012123181 46.6132172375801 
! Gamma         0.0140007118979219 117.929132965634 
! Port Impedance         50               0                
8.65                           0.864544521398879 46.5262200838465 
! Gamma         0.0139731739508899 118.250709793573 
! Port Impedance         50               0                
8.66                           0.86422782991093 46.4392523974547 
! Gamma         0.0139458583546351 118.571784948991 
! Port Impedance         50               0                
8.67                           0.863910922145938 46.3523202895325 
! Gamma         0.0139187624644784 118.892362496245 
! Port Impedance         50               0                
8.68                           0.863593787509792 46.2654307410546 
! Gamma         0.0138918836793268 119.212446449709 
! Port Impedance         50               0                
8.69                           0.863276419600176 46.1785915108062 
! Gamma         0.0138652194407526 119.532040774611 
! Port Impedance         50               0                
8.7                            0.86295881533986 46.091811034668  
! Gamma         0.0138387672320961 119.851149387851 
! Port Impedance         50               0                
8.71                           0.862640974008351 46.0050983185895 
! Gamma         0.0138125245775924 120.169776158803 
! Port Impedance         50               0                
8.72                           0.862322896209471 45.918462827504  
! Gamma         0.0137864890415201 120.487924910098 
! Port Impedance         50               0                
8.73                           0.862004582811204 45.8319143723134 
! Gamma         0.0137606582273723 120.805599418394 
! Port Impedance         50               0                
8.74                           0.861686033892659 45.7454629969028 
! Gamma         0.0137350297770472 121.12280341513  
! Port Impedance         50               0                
8.75                           0.861367247730414 45.6591188669748 
! Gamma         0.0137096013700606 121.439540587258 
! Port Impedance         50               0                
8.76                           0.861048219853789 45.5728921622869 
! Gamma         0.0136843707227772 121.755814577969 
! Port Impedance         50               0                
8.77                           0.860728942194434 45.4867929736598 
! Gamma         0.013659335587661 122.071628987396 
! Port Impedance         50               0                
8.78                           0.860409402352506 45.4008312059514 
! Gamma         0.0136344937525445 122.386987373309 
! Port Impedance         50               0                
8.79                           0.860089582997376 45.3150164879187 
! Gamma         0.0136098430399159 122.70189325179  
! Port Impedance         50               0                
8.8                            0.859769461415707 45.2293580897326 
! Gamma         0.0135853813062241 123.0163500979   
! Port Impedance         50               0                
8.81                           0.859449009217179 45.1438648487122 
! Gamma         0.0135611064411996 123.330361346328 
! Port Impedance         50               0                
8.82                           0.859128192202273 45.0585451036068 
! Gamma         0.0135370163671932 123.643930392029 
! Port Impedance         50               0                
8.83                           0.858806970392926 44.9734066376538 
! Gamma         0.01351310903853 123.957060590847 
! Port Impedance         50               0                
8.84                           0.858485298223802 44.8884566304315 
! Gamma         0.0134893824408793 124.269755260134 
! Port Impedance         50               0                
8.85                           0.858163124886872 44.803701618394  
! Gamma         0.013465834590639 124.582017679341 
! Port Impedance         50               0                
8.86                           0.857840394819992 44.7191474638776 
! Gamma         0.0134424635343358 124.893851090613 
! Port Impedance         50               0                
8.87                           0.857517048326538 44.6347993322342 
! Gamma         0.0134192673480385 125.205258699363 
! Port Impedance         50               0                
8.88                           0.857193022311179 44.5506616766862 
! Gamma         0.0133962441367861 125.516243674839 
! Port Impedance         50               0                
8.89                           0.856868251114252 44.4667382304114 
! Gamma         0.0133733920340288 125.826809150676 
! Port Impedance         50               0                
8.9                            0.856542667426304 44.3830320053242 
! Gamma         0.0133507092010824 126.136958225442 
! Port Impedance         50               0                
8.91                           0.856216203262784 44.2995452969985 
! Gamma         0.0133281938265957 126.446693963169 
! Port Impedance         50               0                
8.92                           0.855888790978333 44.2162796951206 
! Gamma         0.0133058441260295 126.756019393879 
! Port Impedance         50               0                
8.93                           0.855560364299727 44.1332360989097 
! Gamma         0.0132836583411489 127.064937514093 
! Port Impedance         50               0                
8.94                           0.855230859357278 44.0504147368915 
! Gamma         0.013261634739526 127.373451287335 
! Port Impedance         50               0                
8.95                           0.854900215694129 43.9678151904787 
! Gamma         0.0132397716140548 127.681563644628 
! Port Impedance         50               0                
8.96                           0.854568377234804 43.8854364207943 
! Gamma         0.0132180672824776 127.989277484975 
! Port Impedance         50               0                
8.97                           0.85423529319495 43.8032767982434 
! Gamma         0.0131965200869208 128.296595675834 
! Port Impedance         50               0                
8.98                           0.853900918915872 43.7213341343336 
! Gamma         0.0131751283934429 128.603521053586 
! Port Impedance         50               0                
8.99                           0.853565216609635 43.6396057153305 
! Gamma         0.0131538905915917 128.910056423991 
! Port Impedance         50               0                
9                              0.853228156002059 43.5580883373465 
! Gamma         0.0131328050939715 129.216204562634 
! Port Impedance         50               0                
9.01                           0.852889714863192 43.4767783425096 
! Gamma         0.0131118703358204 129.521968215371 
! Port Impedance         50               0                
9.02                           0.852549879417125 43.3956716559035 
! Gamma         0.0130910847745969 129.827350098758 
! Port Impedance         50               0                
9.03                           0.852208644625363 43.3147638230264 
! Gamma         0.0130704468895757 130.132352900473 
! Port Impedance         50               0                
9.04                           0.851866014340407 43.2340500475232 
! Gamma         0.0130499551814522 130.436979279737 
! Port Impedance         50               0                
9.05                           0.851522001327857 43.1535252290077 
! Gamma         0.0130296081719563 130.741231867718 
! Port Impedance         50               0                
9.06                           0.85117662715877 43.0731840008224 
! Gamma         0.013009404403474 131.045113267938 
! Port Impedance         50               0                
9.07                           0.850829921974865 42.9930207675809 
! Gamma         0.0129893424386779 131.348626056661 
! Port Impedance         50               0                
9.08                           0.85048192413229 42.9130297424147 
! Gamma         0.0129694208601654 131.651772783284 
! Port Impedance         50               0                
9.09                           0.850132679730742 42.8332049837979 
! Gamma         0.0129496382701047 131.954555970718 
! Port Impedance         50               0                
9.1                            0.849782242036837 42.7535404319041 
! Gamma         0.0129299932898889 132.256978115755 
! Port Impedance         50               0                
9.11                           0.849430670812171 42.674029944414  
! Gamma         0.0129104845597969 132.559041689441 
! Port Impedance         50               0                
9.12                           0.849078031557424 42.5946673317139 
! Gamma         0.0128911107386623 132.860749137432 
! Port Impedance         50               0                
9.13                           0.848724394685074 42.5154463914223 
! Gamma         0.0128718705035488 133.162102880352 
! Port Impedance         50               0                
9.14                           0.848369834634484 42.4363609422068 
! Gamma         0.0128527625494329 133.463105314133 
! Port Impedance         50               0                
9.15                           0.848014428943047 42.3574048567964 
! Gamma         0.012833785588893 133.763758810365 
! Port Impedance         50               0                
9.16                           0.847658257287713 42.2785720941465 
! Gamma         0.0128149383518051 134.064065716623 
! Port Impedance         50               0                
9.17                           0.847301400511375 42.1998567306635 
! Gamma         0.0127962195850456 134.364028356802 
! Port Impedance         50               0                
9.18                           0.84694393964853 42.121252990419  
! Gamma         0.0127776280521993 134.663649031441 
! Port Impedance         50               0                
9.19                           0.846585954963841 42.0427552742318 
! Gamma         0.0127591625332739 134.962930018034 
! Port Impedance         50               0                
9.2                            0.846227525017203 41.9643581875531 
! Gamma         0.0127408218244211 135.261873571354 
! Port Impedance         50               0                
9.21                           0.845868725767905 41.8860565669987 
! Gamma         0.0127226047376624 135.560481923747 
! Port Impedance         50               0                
9.22                           0.845509629729666 41.8078455054371 
! Gamma         0.012704510100621 135.858757285446 
! Port Impedance         50               0                
9.23                           0.845150305186938 41.7297203754898 
! Gamma         0.0126865367562598 136.15670184486  
! Port Impedance         50               0                
9.24                           0.844790815482517 41.6516768513139 
! Gamma         0.0126686835626238 136.454317768868 
! Port Impedance         50               0                
9.25                           0.844431218384128 41.5737109285342 
! Gamma         0.0126509493925885 136.751607203107 
! Port Impedance         50               0                
9.26                           0.84407156553724 41.4958189421734 
! Gamma         0.012633333133613 137.048572272254 
! Port Impedance         50               0                
9.27                           0.843711902009239 41.4179975824628 
! Gamma         0.0126158336874983 137.345215080298 
! Port Impedance         50               0                
9.28                           0.84335226592928 41.3402439083952 
! Gamma         0.0125984499701502 137.641537710821 
! Port Impedance         50               0                
9.29                           0.842992688225941 41.2625553588862 
! Gamma         0.0125811809113479 137.93754222726  
! Port Impedance         50               0                
9.3                            0.842633192464155 41.1849297614443 
! Gamma         0.0125640254545156 138.233230673173 
! Port Impedance         50               0                
9.31                           0.842273794780588 41.107365338244  
! Gamma         0.0125469825565003 138.528605072494 
! Port Impedance         50               0                
9.32                           0.841914503916261 41.02986070952   
! Gamma         0.0125300511873531 138.823667429797 
! Port Impedance         50               0                
9.33                           0.841555321342766 40.9524148942086 
! Gamma         0.0125132303301152 139.118419730536 
! Port Impedance         50               0                
9.34                           0.841196241478484 40.8750273077953 
! Gamma         0.0124965189806076 139.412863941298 
! Port Impedance         50               0                
9.35                           0.840837251988848 40.7976977573512 
! Gamma         0.0124799161472258 139.707002010047 
! Port Impedance         50               0                
9.36                           0.840478334164484 40.7204264337454 
! Gamma         0.0124634208507381 140.000835866355 
! Port Impedance         50               0                
9.37                           0.840119463370237 40.6432139010797 
! Gamma         0.0124470321240873 140.294367421644 
! Port Impedance         50               0                
9.38                           0.839760609556513 40.5660610833805 
! Gamma         0.0124307490121972 140.587598569415 
! Port Impedance         50               0                
9.39                           0.839401737824904 40.4889692486378 
! Gamma         0.0124145705717824 140.880531185473 
! Port Impedance         50               0                
9.4                            0.839042809038525 40.4119399903139 
! Gamma         0.0123984958711618 141.173167128153 
! Port Impedance         50               0                
9.41                           0.838683780468038 40.3349752064273 
! Gamma         0.0123825239900756 141.465508238538 
! Port Impedance         50               0                
9.42                           0.838324606463423 40.2580770764154 
! Gamma         0.0123666540195059 141.757556340678 
! Port Impedance         50               0                
9.43                           0.837965239142147 40.1812480359337 
! Gamma         0.012350885061501 142.049313241802 
! Port Impedance         50               0                
9.44                           0.837605629083954 40.1044907498191 
! Gamma         0.0123352162290026 142.340780732524 
! Port Impedance         50               0                
9.45                           0.837245726023252 40.027808083461  
! Gamma         0.0123196466456766 142.631960587057 
! Port Impedance         50               0                
9.46                           0.836885479529669 39.9512030728268 
! Gamma         0.012304175445747 142.922854563409 
! Port Impedance         50               0                
9.47                           0.836524839668777 39.8746788934139 
! Gamma         0.0122888017738328 143.213464403585 
! Port Impedance         50               0                
9.48                           0.836163757634499 39.7982388284324 
! Gamma         0.0122735247847884 143.503791833788 
! Port Impedance         50               0                
9.49                           0.835802186346415 39.7218862365057 
! Gamma         0.0122583436435463 143.793838564604 
! Port Impedance         50               0                
9.5                            0.835440081005072 39.6456245192138 
! Gamma         0.0122432575249636 144.083606291202 
! Port Impedance         50               0                
9.51                           0.835077399599226 39.5694570887611 
! Gamma         0.0122282656136705 144.373096693516 
! Port Impedance         50               0                
9.52                           0.834714103361004 39.4933873361309 
! Gamma         0.0122133671039223 144.662311436432 
! Port Impedance         50               0                
9.53                           0.834350157163607 39.4174185999968 
! Gamma         0.0121985611994537 144.951252169968 
! Port Impedance         50               0                
9.54                           0.833985529859489 39.3415541367152 
! Gamma         0.0121838471133358 145.239920529457 
! Port Impedance         50               0                
9.55                           0.83362019455621 39.2657970916991 
! Gamma         0.0121692240678363 145.52831813572  
! Port Impedance         50               0                
9.56                           0.833254128828525 39.1901504724445 
! Gamma         0.0121546912942814 145.816446595241 
! Port Impedance         50               0                
9.57                           0.83288731486654 39.1146171234759 
! Gamma         0.0121402480329207 146.104307500339 
! Port Impedance         50               0                
9.58                           0.832519739560141 39.039199703469  
! Gamma         0.0121258935327949 146.391902429334 
! Port Impedance         50               0                
9.59                           0.832151394520767 38.9639006647548 
! Gamma         0.0121116270516049 146.679232946717 
! Port Impedance         50               0                
9.6                            0.831782276042858 38.888722235422  
! Gamma         0.0120974478555843 146.966300603312 
! Port Impedance         50               0                
9.61                           0.831412385007285 38.8136664041698 
! Gamma         0.0120833552193736 147.253106936433 
! Port Impedance         50               0                
9.62                           0.831041726730272 38.7387349080603 